<?xml version="1.0" encoding="UTF-8"?>

<!-- generated on 2024-03-16 07:34:11 by Eclipse SUMO GUI Version 1.19.0
<configuration xmlns:xsi="http://www.w3.org/2001/XMLSchema-instance" xsi:noNamespaceSchemaLocation="http://sumo.dlr.de/xsd/sumoConfiguration.xsd">

    <input>
        <net-file value="activitygen-example.net.xml"/>
        <route-files value="activitygen-example.rou.xml"/>
    </input>

    <output>
        <emission-output value="emi_out"/>
        <fcd-output value="fcd_out"/>
    </output>

    <time>
        <begin value="0"/>
        <end value="10000"/>
    </time>

</configuration>
-->

<emission-export xmlns:xsi="http://www.w3.org/2001/XMLSchema-instance" xsi:noNamespaceSchemaLocation="http://sumo.dlr.de/xsd/emission_file.xsd">
    <timestep time="0.00"/>
    <timestep time="1.00"/>
    <timestep time="2.00"/>
    <timestep time="3.00"/>
    <timestep time="4.00"/>
    <timestep time="5.00"/>
    <timestep time="6.00"/>
    <timestep time="7.00"/>
    <timestep time="8.00"/>
    <timestep time="9.00"/>
    <timestep time="10.00"/>
    <timestep time="11.00"/>
    <timestep time="12.00"/>
    <timestep time="13.00"/>
    <timestep time="14.00"/>
    <timestep time="15.00"/>
    <timestep time="16.00"/>
    <timestep time="17.00"/>
    <timestep time="18.00"/>
    <timestep time="19.00"/>
    <timestep time="20.00"/>
    <timestep time="21.00"/>
    <timestep time="22.00"/>
    <timestep time="23.00"/>
    <timestep time="24.00"/>
    <timestep time="25.00"/>
    <timestep time="26.00"/>
    <timestep time="27.00"/>
    <timestep time="28.00"/>
    <timestep time="29.00"/>
    <timestep time="30.00"/>
    <timestep time="31.00"/>
    <timestep time="32.00"/>
    <timestep time="33.00"/>
    <timestep time="34.00"/>
    <timestep time="35.00"/>
    <timestep time="36.00"/>
    <timestep time="37.00"/>
    <timestep time="38.00"/>
    <timestep time="39.00"/>
    <timestep time="40.00"/>
    <timestep time="41.00"/>
    <timestep time="42.00"/>
    <timestep time="43.00"/>
    <timestep time="44.00"/>
    <timestep time="45.00"/>
    <timestep time="46.00"/>
    <timestep time="47.00"/>
    <timestep time="48.00"/>
    <timestep time="49.00"/>
    <timestep time="50.00"/>
    <timestep time="51.00"/>
    <timestep time="52.00"/>
    <timestep time="53.00"/>
    <timestep time="54.00"/>
    <timestep time="55.00"/>
    <timestep time="56.00"/>
    <timestep time="57.00"/>
    <timestep time="58.00"/>
    <timestep time="59.00"/>
    <timestep time="60.00"/>
    <timestep time="61.00"/>
    <timestep time="62.00"/>
    <timestep time="63.00"/>
    <timestep time="64.00"/>
    <timestep time="65.00"/>
    <timestep time="66.00"/>
    <timestep time="67.00"/>
    <timestep time="68.00"/>
    <timestep time="69.00"/>
    <timestep time="70.00"/>
    <timestep time="71.00"/>
    <timestep time="72.00"/>
    <timestep time="73.00"/>
    <timestep time="74.00"/>
    <timestep time="75.00"/>
    <timestep time="76.00"/>
    <timestep time="77.00"/>
    <timestep time="78.00"/>
    <timestep time="79.00"/>
    <timestep time="80.00"/>
    <timestep time="81.00"/>
    <timestep time="82.00"/>
    <timestep time="83.00"/>
    <timestep time="84.00"/>
    <timestep time="85.00"/>
    <timestep time="86.00"/>
    <timestep time="87.00"/>
    <timestep time="88.00"/>
    <timestep time="89.00"/>
    <timestep time="90.00"/>
    <timestep time="91.00"/>
    <timestep time="92.00"/>
    <timestep time="93.00"/>
    <timestep time="94.00"/>
    <timestep time="95.00"/>
    <timestep time="96.00"/>
    <timestep time="97.00"/>
    <timestep time="98.00"/>
    <timestep time="99.00"/>
    <timestep time="100.00"/>
    <timestep time="101.00"/>
    <timestep time="102.00"/>
    <timestep time="103.00"/>
    <timestep time="104.00"/>
    <timestep time="105.00"/>
    <timestep time="106.00"/>
    <timestep time="107.00"/>
    <timestep time="108.00"/>
    <timestep time="109.00"/>
    <timestep time="110.00"/>
    <timestep time="111.00"/>
    <timestep time="112.00"/>
    <timestep time="113.00"/>
    <timestep time="114.00"/>
    <timestep time="115.00"/>
    <timestep time="116.00"/>
    <timestep time="117.00"/>
    <timestep time="118.00"/>
    <timestep time="119.00"/>
    <timestep time="120.00"/>
    <timestep time="121.00"/>
    <timestep time="122.00"/>
    <timestep time="123.00"/>
    <timestep time="124.00"/>
    <timestep time="125.00"/>
    <timestep time="126.00"/>
    <timestep time="127.00"/>
    <timestep time="128.00"/>
    <timestep time="129.00"/>
    <timestep time="130.00"/>
    <timestep time="131.00"/>
    <timestep time="132.00"/>
    <timestep time="133.00"/>
    <timestep time="134.00"/>
    <timestep time="135.00"/>
    <timestep time="136.00"/>
    <timestep time="137.00"/>
    <timestep time="138.00"/>
    <timestep time="139.00"/>
    <timestep time="140.00"/>
    <timestep time="141.00"/>
    <timestep time="142.00"/>
    <timestep time="143.00"/>
    <timestep time="144.00"/>
    <timestep time="145.00"/>
    <timestep time="146.00"/>
    <timestep time="147.00"/>
    <timestep time="148.00"/>
    <timestep time="149.00"/>
    <timestep time="150.00"/>
    <timestep time="151.00"/>
    <timestep time="152.00"/>
    <timestep time="153.00"/>
    <timestep time="154.00"/>
    <timestep time="155.00"/>
    <timestep time="156.00"/>
    <timestep time="157.00"/>
    <timestep time="158.00"/>
    <timestep time="159.00"/>
    <timestep time="160.00"/>
    <timestep time="161.00"/>
    <timestep time="162.00">
        <vehicle id="randUni359:1" eclass="HBEFA3/PC_G_EU4" CO2="2624.72" CO="164.78" HC="0.81" NOx="1.20" PMx="0.07" fuel="837.22" electricity="0.00" noise="55.94" route="!randUni359:1" type="random" waiting="0.00" lane="e32t33_0" pos="60.27" speed="0.00" angle="0.00" x="604.95" y="468.32"/>
    </timestep>
    <timestep time="163.00">
        <vehicle id="randUni359:1" eclass="HBEFA3/PC_G_EU4" CO2="4039.82" CO="151.56" HC="0.79" NOx="1.80" PMx="0.09" fuel="1288.55" electricity="0.00" noise="68.14" route="!randUni359:1" type="random" waiting="0.00" lane="e32t33_0" pos="62.82" speed="2.55" angle="0.00" x="604.95" y="470.87"/>
    </timestep>
    <timestep time="164.00">
        <vehicle id="randUni359:1" eclass="HBEFA3/PC_G_EU4" CO2="4925.09" CO="137.48" HC="0.74" NOx="2.16" PMx="0.10" fuel="1570.90" electricity="0.00" noise="67.57" route="!randUni359:1" type="random" waiting="0.00" lane="e32t33_0" pos="67.58" speed="4.76" angle="0.00" x="604.95" y="475.63"/>
    </timestep>
    <timestep time="165.00">
        <vehicle id="randUni359:1" eclass="HBEFA3/PC_G_EU4" CO2="6614.44" CO="141.62" HC="0.80" NOx="2.89" PMx="0.14" fuel="2109.70" electricity="0.00" noise="69.53" route="!randUni359:1" type="random" waiting="0.00" lane="e32t33_0" pos="74.75" speed="7.17" angle="0.00" x="604.95" y="482.80"/>
    </timestep>
    <timestep time="166.00">
        <vehicle id="randUni359:1" eclass="HBEFA3/PC_G_EU4" CO2="7335.27" CO="133.23" HC="0.78" NOx="3.18" PMx="0.15" fuel="2339.60" electricity="0.00" noise="69.43" route="!randUni359:1" type="random" waiting="0.00" lane="e32t33_0" pos="84.08" speed="9.33" angle="0.00" x="604.95" y="492.13"/>
    </timestep>
    <timestep time="167.00">
        <vehicle id="randUni359:1" eclass="HBEFA3/PC_G_EU4" CO2="7790.36" CO="125.17" HC="0.76" NOx="3.34" PMx="0.16" fuel="2484.75" electricity="0.00" noise="69.41" route="!randUni359:1" type="random" waiting="0.00" lane="e32t33_0" pos="95.33" speed="11.25" angle="0.00" x="604.95" y="503.38"/>
    </timestep>
    <timestep time="168.00">
        <vehicle id="randUni359:1" eclass="HBEFA3/PC_G_EU4" CO2="8423.98" CO="124.61" HC="0.77" NOx="3.60" PMx="0.17" fuel="2686.83" electricity="0.00" noise="69.89" route="!randUni359:1" type="random" waiting="0.00" lane="e32t33_1" pos="108.39" speed="13.06" angle="0.00" x="601.65" y="516.44"/>
    </timestep>
    <timestep time="169.00">
        <vehicle id="randUni359:1" eclass="HBEFA3/PC_G_EU4" CO2="8729.53" CO="120.89" HC="0.76" NOx="3.70" PMx="0.18" fuel="2784.28" electricity="0.00" noise="70.14" route="!randUni359:1" type="random" waiting="0.00" lane="e32t33_1" pos="123.09" speed="14.70" angle="0.00" x="601.65" y="531.14"/>
    </timestep>
    <timestep time="170.00">
        <vehicle id="randUni359:1" eclass="HBEFA3/PC_G_EU4" CO2="2211.98" CO="0.00" HC="0.00" NOx="0.63" PMx="0.01" fuel="705.53" electricity="0.00" noise="64.98" route="!randUni359:1" type="random" waiting="0.00" lane="e32t33_1" pos="137.75" speed="14.65" angle="0.00" x="601.65" y="545.80"/>
    </timestep>
    <timestep time="171.00">
        <vehicle id="randUni359:1" eclass="HBEFA3/PC_G_EU4" CO2="2342.57" CO="0.00" HC="0.01" NOx="0.69" PMx="0.01" fuel="747.18" electricity="0.00" noise="65.05" route="!randUni359:1" type="random" waiting="0.00" lane="e32t33_1" pos="152.38" speed="14.64" angle="0.00" x="601.65" y="560.43"/>
    </timestep>
    <timestep time="172.00">
        <vehicle id="randUni359:1" eclass="HBEFA3/PC_G_EU4" CO2="2659.63" CO="0.00" HC="0.04" NOx="0.84" PMx="0.02" fuel="848.31" electricity="0.00" noise="65.27" route="!randUni359:1" type="random" waiting="0.00" lane="e32t33_1" pos="167.08" speed="14.70" angle="0.00" x="601.65" y="575.13"/>
    </timestep>
    <timestep time="173.00">
        <vehicle id="randUni359:1" eclass="HBEFA3/PC_G_EU4" CO2="0.00" CO="0.00" HC="0.00" NOx="0.00" PMx="0.00" fuel="0.00" electricity="0.00" noise="64.19" route="!randUni359:1" type="random" waiting="0.00" lane="e32t33_1" pos="181.44" speed="14.36" angle="0.00" x="601.65" y="589.49"/>
    </timestep>
    <timestep time="174.00">
        <vehicle id="randUni359:1" eclass="HBEFA3/PC_G_EU4" CO2="0.00" CO="0.00" HC="0.00" NOx="0.00" PMx="0.00" fuel="0.00" electricity="0.00" noise="63.03" route="!randUni359:1" type="random" waiting="0.00" lane=":33_10_1" pos="11.20" speed="13.66" angle="0.00" x="601.65" y="603.15"/>
    </timestep>
    <timestep time="175.00">
        <vehicle id="randUni359:1" eclass="HBEFA3/PC_G_EU4" CO2="3271.62" CO="13.05" HC="0.13" NOx="1.14" PMx="0.04" fuel="1043.50" electricity="0.00" noise="65.21" route="!randUni359:1" type="random" waiting="0.00" lane="e33t34_1" pos="9.01" speed="13.91" angle="0.00" x="601.65" y="617.06"/>
    </timestep>
    <timestep time="176.00">
        <vehicle id="randUni359:1" eclass="HBEFA3/PC_G_EU4" CO2="0.00" CO="0.00" HC="0.00" NOx="0.00" PMx="0.00" fuel="0.00" electricity="0.00" noise="63.26" route="!randUni359:1" type="random" waiting="0.00" lane="e33t34_1" pos="22.45" speed="13.44" angle="0.00" x="601.65" y="630.50"/>
    </timestep>
    <timestep time="177.00">
        <vehicle id="randUni359:1" eclass="HBEFA3/PC_G_EU4" CO2="6908.72" CO="83.85" HC="0.55" NOx="2.84" PMx="0.13" fuel="2203.54" electricity="0.00" noise="68.43" route="!randUni359:1" type="random" waiting="0.00" lane="e33t34_1" pos="37.07" speed="14.62" angle="0.00" x="601.65" y="645.12"/>
    </timestep>
    <timestep time="178.00">
        <vehicle id="randUni359:1" eclass="HBEFA3/PC_G_EU4" CO2="1508.60" CO="0.00" HC="0.00" NOx="0.30" PMx="0.00" fuel="481.19" electricity="0.00" noise="64.42" route="!randUni359:1" type="random" waiting="0.00" lane="e33t34_1" pos="51.46" speed="14.39" angle="0.00" x="601.65" y="659.51"/>
    </timestep>
    <timestep time="179.00">
        <vehicle id="randUni359:1" eclass="HBEFA3/PC_G_EU4" CO2="0.00" CO="0.00" HC="0.00" NOx="0.00" PMx="0.00" fuel="0.00" electricity="0.00" noise="63.61" route="!randUni359:1" type="random" waiting="0.00" lane="e33t34_1" pos="65.38" speed="13.91" angle="0.00" x="601.65" y="673.43"/>
    </timestep>
    <timestep time="180.00">
        <vehicle id="randUni359:1" eclass="HBEFA3/PC_G_EU4" CO2="4058.83" CO="26.63" HC="0.22" NOx="1.50" PMx="0.06" fuel="1294.58" electricity="0.00" noise="66.02" route="!randUni359:1" type="random" waiting="0.00" lane="e33t34_1" pos="79.74" speed="14.36" angle="0.00" x="601.65" y="687.79"/>
    </timestep>
    <timestep time="181.00">
        <vehicle id="randUni359:1" eclass="HBEFA3/PC_G_EU4" CO2="3751.00" CO="18.36" HC="0.17" NOx="1.35" PMx="0.05" fuel="1196.40" electricity="0.00" noise="65.98" route="!randUni359:1" type="random" waiting="0.00" lane="e33t34_1" pos="94.45" speed="14.71" angle="0.00" x="601.65" y="702.50"/>
    </timestep>
    <timestep time="182.00">
        <vehicle id="randUni359:1" eclass="HBEFA3/PC_G_EU4" CO2="1375.68" CO="0.00" HC="0.00" NOx="0.24" PMx="0.00" fuel="438.80" electricity="0.00" noise="64.39" route="!randUni359:1" type="random" waiting="0.00" lane="e33t34_1" pos="108.89" speed="14.44" angle="0.00" x="601.65" y="716.94"/>
    </timestep>
    <timestep time="183.00">
        <vehicle id="randUni359:1" eclass="HBEFA3/PC_G_EU4" CO2="1521.66" CO="0.00" HC="0.00" NOx="0.31" PMx="0.00" fuel="485.36" electricity="0.00" noise="64.30" route="!randUni359:1" type="random" waiting="0.00" lane="e33t34_1" pos="123.11" speed="14.21" angle="0.00" x="601.65" y="731.16"/>
    </timestep>
    <timestep time="184.00">
        <vehicle id="randUni359:1" eclass="HBEFA3/PC_G_EU4" CO2="0.00" CO="0.00" HC="0.00" NOx="0.00" PMx="0.00" fuel="0.00" electricity="0.00" noise="63.47" route="!randUni359:1" type="random" waiting="0.00" lane="e33t34_1" pos="136.84" speed="13.74" angle="0.00" x="601.65" y="744.89"/>
    </timestep>
    <timestep time="185.00">
        <vehicle id="randUni359:1" eclass="HBEFA3/PC_G_EU4" CO2="1527.25" CO="0.00" HC="0.00" NOx="0.33" PMx="0.00" fuel="487.14" electricity="0.00" noise="63.81" route="!randUni359:1" type="random" waiting="0.00" lane="e33t34_1" pos="150.36" speed="13.52" angle="0.00" x="601.65" y="758.41"/>
    </timestep>
    <timestep time="186.00">
        <vehicle id="randUni359:1" eclass="HBEFA3/PC_G_EU4" CO2="3833.80" CO="24.54" HC="0.20" NOx="1.41" PMx="0.05" fuel="1222.81" electricity="0.00" noise="65.64" route="!randUni359:1" type="random" waiting="0.00" lane="e33t34_1" pos="164.28" speed="13.93" angle="0.00" x="601.65" y="772.33"/>
    </timestep>
    <timestep time="187.00">
        <vehicle id="randUni359:1" eclass="HBEFA3/PC_G_EU4" CO2="0.00" CO="0.00" HC="0.00" NOx="0.00" PMx="0.00" fuel="0.00" electricity="0.00" noise="57.51" route="!randUni359:1" type="random" waiting="0.00" lane="e33t34_1" pos="174.55" speed="10.27" angle="0.00" x="601.65" y="782.60"/>
    </timestep>
    <timestep time="188.00">
        <vehicle id="randUni359:1" eclass="HBEFA3/PC_G_EU4" CO2="0.00" CO="0.00" HC="0.00" NOx="0.00" PMx="0.00" fuel="0.00" electricity="0.00" noise="50.24" route="!randUni359:1" type="random" waiting="0.00" lane="e33t34_1" pos="180.33" speed="5.77" angle="0.00" x="601.65" y="788.38"/>
    </timestep>
    <timestep time="189.00">
        <vehicle id="randUni359:1" eclass="HBEFA3/PC_G_EU4" CO2="7062.77" CO="140.17" HC="0.81" NOx="3.08" PMx="0.15" fuel="2252.69" electricity="0.00" noise="69.68" route="!randUni359:1" type="random" waiting="0.00" lane=":34_5_0" pos="4.55" speed="8.12" angle="351.39" x="600.91" y="796.41"/>
    </timestep>
    <timestep time="190.00">
        <vehicle id="randUni359:1" eclass="HBEFA3/PC_G_EU4" CO2="6689.45" CO="114.46" HC="0.68" NOx="2.86" PMx="0.13" fuel="2133.62" electricity="0.00" noise="68.14" route="!randUni359:1" type="random" waiting="0.00" lane=":34_5_0" pos="14.44" speed="9.90" angle="286.83" x="593.14" y="801.48"/>
    </timestep>
    <timestep time="191.00">
        <vehicle id="randUni359:1" eclass="HBEFA3/PC_G_EU4" CO2="9489.99" CO="152.76" HC="0.92" NOx="4.12" PMx="0.20" fuel="3026.84" electricity="0.00" noise="71.39" route="!randUni359:1" type="random" waiting="0.00" lane="e34t24_1" pos="10.99" speed="12.19" angle="270.00" x="580.96" y="801.65"/>
    </timestep>
    <timestep time="192.00">
        <vehicle id="randUni359:1" eclass="HBEFA3/PC_G_EU4" CO2="7179.63" CO="95.67" HC="0.61" NOx="3.00" PMx="0.14" fuel="2289.95" electricity="0.00" noise="68.53" route="!randUni359:1" type="random" waiting="0.00" lane="e34t24_1" pos="24.55" speed="13.57" angle="270.00" x="567.40" y="801.65"/>
    </timestep>
    <timestep time="193.00">
        <vehicle id="randUni359:1" eclass="HBEFA3/PC_G_EU4" CO2="3163.51" CO="11.53" HC="0.12" NOx="1.10" PMx="0.03" fuel="1009.02" electricity="0.00" noise="65.07" route="!randUni359:1" type="random" waiting="0.00" lane="e34t24_1" pos="38.35" speed="13.80" angle="270.00" x="553.60" y="801.65"/>
    </timestep>
    <timestep time="194.00">
        <vehicle id="randUni359:1" eclass="HBEFA3/PC_G_EU4" CO2="5724.65" CO="59.25" HC="0.41" NOx="2.28" PMx="0.10" fuel="1825.89" electricity="0.00" noise="67.43" route="!randUni359:1" type="random" waiting="0.00" lane="e34t24_1" pos="53.02" speed="14.66" angle="270.00" x="538.93" y="801.65"/>
    </timestep>
    <timestep time="195.00">
        <vehicle id="randUni359:1" eclass="HBEFA3/PC_G_EU4" CO2="0.00" CO="0.00" HC="0.00" NOx="0.00" PMx="0.00" fuel="0.00" electricity="0.00" noise="63.56" route="!randUni359:1" type="random" waiting="0.00" lane="e34t24_1" pos="67.10" speed="14.08" angle="270.00" x="524.85" y="801.65"/>
    </timestep>
    <timestep time="196.00">
        <vehicle id="randUni359:1" eclass="HBEFA3/PC_G_EU4" CO2="1877.03" CO="0.00" HC="0.00" NOx="0.48" PMx="0.00" fuel="598.70" electricity="0.00" noise="64.33" route="!randUni359:1" type="random" waiting="0.00" lane="e34t24_1" pos="81.06" speed="13.96" angle="270.00" x="510.89" y="801.65"/>
    </timestep>
    <timestep time="197.00">
        <vehicle id="randUni359:1" eclass="HBEFA3/PC_G_EU4" CO2="5125.70" CO="46.90" HC="0.33" NOx="2.00" PMx="0.08" fuel="1634.86" electricity="0.00" noise="66.96" route="!randUni359:1" type="random" waiting="0.00" lane="e34t24_1" pos="95.72" speed="14.67" angle="270.00" x="496.23" y="801.65"/>
    </timestep>
    <timestep time="198.00">
        <vehicle id="randUni359:1" eclass="HBEFA3/PC_G_EU4" CO2="0.00" CO="0.00" HC="0.00" NOx="0.00" PMx="0.00" fuel="0.00" electricity="0.00" noise="62.81" route="!randUni359:1" type="random" waiting="0.00" lane="e34t24_1" pos="109.48" speed="13.76" angle="270.00" x="482.47" y="801.65"/>
    </timestep>
    <timestep time="199.00">
        <vehicle id="randUni359:1" eclass="HBEFA3/PC_G_EU4" CO2="4803.67" CO="41.74" HC="0.30" NOx="1.85" PMx="0.08" fuel="1532.14" electricity="0.00" noise="66.60" route="!randUni359:1" type="random" waiting="0.00" lane="e34t24_1" pos="123.88" speed="14.40" angle="270.00" x="468.07" y="801.65"/>
    </timestep>
    <timestep time="200.00">
        <vehicle id="randUni359:1" eclass="HBEFA3/PC_G_EU4" CO2="0.00" CO="0.00" HC="0.00" NOx="0.00" PMx="0.00" fuel="0.00" electricity="0.00" noise="63.85" route="!randUni359:1" type="random" waiting="0.00" lane="e34t24_1" pos="137.90" speed="14.01" angle="270.00" x="454.05" y="801.65"/>
    </timestep>
    <timestep time="201.00">
        <vehicle id="randUni359:1" eclass="HBEFA3/PC_G_EU4" CO2="1393.73" CO="0.00" HC="0.00" NOx="0.26" PMx="0.00" fuel="444.55" electricity="0.00" noise="63.90" route="!randUni359:1" type="random" waiting="0.00" lane="e34t24_1" pos="151.65" speed="13.75" angle="270.00" x="440.30" y="801.65"/>
    </timestep>
    <timestep time="202.00">
        <vehicle id="randUni359:1" eclass="HBEFA3/PC_G_EU4" CO2="6100.80" CO="66.71" HC="0.45" NOx="2.46" PMx="0.11" fuel="1945.86" electricity="0.00" noise="67.76" route="!randUni359:1" type="random" waiting="0.00" lane="e34t24_1" pos="166.37" speed="14.72" angle="270.00" x="425.58" y="801.65"/>
    </timestep>
    <timestep time="203.00">
        <vehicle id="randUni359:1" eclass="HBEFA3/PC_G_EU4" CO2="0.00" CO="0.00" HC="0.00" NOx="0.00" PMx="0.00" fuel="0.00" electricity="0.00" noise="62.94" route="!randUni359:1" type="random" waiting="0.00" lane="e34t24_1" pos="180.22" speed="13.85" angle="270.00" x="411.73" y="801.65"/>
    </timestep>
    <timestep time="204.00">
        <vehicle id="randUni359:1" eclass="HBEFA3/PC_G_EU4" CO2="3347.00" CO="13.38" HC="0.14" NOx="1.17" PMx="0.04" fuel="1067.54" electricity="0.00" noise="65.38" route="!randUni359:1" type="random" waiting="0.00" lane=":24_0_1" pos="10.43" speed="14.12" angle="270.00" x="397.62" y="801.65"/>
    </timestep>
    <timestep time="205.00">
        <vehicle id="randUni359:1" eclass="HBEFA3/PC_G_EU4" CO2="1322.95" CO="0.00" HC="0.00" NOx="0.23" PMx="0.00" fuel="421.98" electricity="0.00" noise="63.93" route="!randUni359:1" type="random" waiting="0.00" lane="e24t14_1" pos="8.17" speed="13.84" angle="270.00" x="383.78" y="801.65"/>
    </timestep>
    <timestep time="206.00">
        <vehicle id="randUni359:1" eclass="HBEFA3/PC_G_EU4" CO2="1840.50" CO="0.00" HC="0.00" NOx="0.47" PMx="0.00" fuel="587.05" electricity="0.00" noise="64.13" route="!randUni359:1" type="random" waiting="0.00" lane="e24t14_1" pos="21.87" speed="13.70" angle="270.00" x="370.08" y="801.65"/>
    </timestep>
    <timestep time="207.00">
        <vehicle id="randUni359:1" eclass="HBEFA3/PC_G_EU4" CO2="0.00" CO="0.00" HC="0.00" NOx="0.00" PMx="0.00" fuel="0.00" electricity="0.00" noise="59.14" route="!randUni359:1" type="random" waiting="0.00" lane="e24t14_1" pos="33.18" speed="11.30" angle="270.00" x="358.77" y="801.65"/>
    </timestep>
    <timestep time="208.00">
        <vehicle id="randUni359:1" eclass="HBEFA3/PC_G_EU4" CO2="0.00" CO="0.00" HC="0.00" NOx="0.00" PMx="0.00" fuel="0.00" electricity="0.00" noise="52.21" route="!randUni359:1" type="random" waiting="0.00" lane="e24t14_1" pos="39.98" speed="6.80" angle="270.00" x="351.97" y="801.65"/>
    </timestep>
    <timestep time="209.00">
        <vehicle id="randUni359:1" eclass="HBEFA3/PC_G_EU4" CO2="0.00" CO="0.00" HC="0.00" NOx="0.00" PMx="0.00" fuel="0.00" electricity="0.00" noise="42.68" route="!randUni359:1" type="random" waiting="0.00" lane="e24t14_1" pos="42.60" speed="2.62" angle="270.00" x="349.35" y="801.65"/>
    </timestep>
    <timestep time="210.00"/>
    <timestep time="211.00"/>
    <timestep time="212.00"/>
    <timestep time="213.00"/>
    <timestep time="214.00"/>
    <timestep time="215.00"/>
    <timestep time="216.00"/>
    <timestep time="217.00"/>
    <timestep time="218.00"/>
    <timestep time="219.00"/>
    <timestep time="220.00"/>
    <timestep time="221.00"/>
    <timestep time="222.00"/>
    <timestep time="223.00"/>
    <timestep time="224.00"/>
    <timestep time="225.00"/>
    <timestep time="226.00"/>
    <timestep time="227.00"/>
    <timestep time="228.00"/>
    <timestep time="229.00"/>
    <timestep time="230.00"/>
    <timestep time="231.00"/>
    <timestep time="232.00"/>
    <timestep time="233.00"/>
    <timestep time="234.00"/>
    <timestep time="235.00"/>
    <timestep time="236.00"/>
    <timestep time="237.00"/>
    <timestep time="238.00"/>
    <timestep time="239.00"/>
    <timestep time="240.00"/>
    <timestep time="241.00"/>
    <timestep time="242.00"/>
    <timestep time="243.00"/>
    <timestep time="244.00"/>
    <timestep time="245.00"/>
    <timestep time="246.00"/>
    <timestep time="247.00"/>
    <timestep time="248.00"/>
    <timestep time="249.00"/>
    <timestep time="250.00"/>
    <timestep time="251.00"/>
    <timestep time="252.00"/>
    <timestep time="253.00"/>
    <timestep time="254.00"/>
    <timestep time="255.00"/>
    <timestep time="256.00"/>
    <timestep time="257.00"/>
    <timestep time="258.00"/>
    <timestep time="259.00"/>
    <timestep time="260.00"/>
    <timestep time="261.00"/>
    <timestep time="262.00"/>
    <timestep time="263.00"/>
    <timestep time="264.00"/>
    <timestep time="265.00"/>
    <timestep time="266.00"/>
    <timestep time="267.00"/>
    <timestep time="268.00"/>
    <timestep time="269.00"/>
    <timestep time="270.00"/>
    <timestep time="271.00"/>
    <timestep time="272.00"/>
    <timestep time="273.00"/>
    <timestep time="274.00"/>
    <timestep time="275.00"/>
    <timestep time="276.00"/>
    <timestep time="277.00"/>
    <timestep time="278.00"/>
    <timestep time="279.00"/>
    <timestep time="280.00"/>
    <timestep time="281.00"/>
    <timestep time="282.00"/>
    <timestep time="283.00"/>
    <timestep time="284.00"/>
    <timestep time="285.00"/>
    <timestep time="286.00"/>
    <timestep time="287.00"/>
    <timestep time="288.00"/>
    <timestep time="289.00"/>
    <timestep time="290.00"/>
    <timestep time="291.00"/>
    <timestep time="292.00"/>
    <timestep time="293.00"/>
    <timestep time="294.00"/>
    <timestep time="295.00"/>
    <timestep time="296.00"/>
    <timestep time="297.00"/>
    <timestep time="298.00"/>
    <timestep time="299.00"/>
    <timestep time="300.00"/>
    <timestep time="301.00"/>
    <timestep time="302.00"/>
    <timestep time="303.00"/>
    <timestep time="304.00"/>
    <timestep time="305.00"/>
    <timestep time="306.00"/>
    <timestep time="307.00"/>
    <timestep time="308.00"/>
    <timestep time="309.00"/>
    <timestep time="310.00"/>
    <timestep time="311.00"/>
    <timestep time="312.00"/>
    <timestep time="313.00"/>
    <timestep time="314.00"/>
    <timestep time="315.00"/>
    <timestep time="316.00"/>
    <timestep time="317.00"/>
    <timestep time="318.00"/>
    <timestep time="319.00"/>
    <timestep time="320.00"/>
    <timestep time="321.00"/>
    <timestep time="322.00"/>
    <timestep time="323.00"/>
    <timestep time="324.00"/>
    <timestep time="325.00"/>
    <timestep time="326.00"/>
    <timestep time="327.00"/>
    <timestep time="328.00"/>
    <timestep time="329.00"/>
    <timestep time="330.00"/>
    <timestep time="331.00"/>
    <timestep time="332.00"/>
    <timestep time="333.00"/>
    <timestep time="334.00"/>
    <timestep time="335.00"/>
    <timestep time="336.00"/>
    <timestep time="337.00"/>
    <timestep time="338.00"/>
    <timestep time="339.00"/>
    <timestep time="340.00"/>
    <timestep time="341.00"/>
    <timestep time="342.00"/>
    <timestep time="343.00"/>
    <timestep time="344.00"/>
    <timestep time="345.00"/>
    <timestep time="346.00"/>
    <timestep time="347.00"/>
    <timestep time="348.00"/>
    <timestep time="349.00"/>
    <timestep time="350.00"/>
    <timestep time="351.00"/>
    <timestep time="352.00"/>
    <timestep time="353.00"/>
    <timestep time="354.00"/>
    <timestep time="355.00"/>
    <timestep time="356.00"/>
    <timestep time="357.00"/>
    <timestep time="358.00"/>
    <timestep time="359.00"/>
    <timestep time="360.00"/>
    <timestep time="361.00"/>
    <timestep time="362.00"/>
    <timestep time="363.00"/>
    <timestep time="364.00"/>
    <timestep time="365.00"/>
    <timestep time="366.00"/>
    <timestep time="367.00"/>
    <timestep time="368.00"/>
    <timestep time="369.00"/>
    <timestep time="370.00"/>
    <timestep time="371.00"/>
    <timestep time="372.00"/>
    <timestep time="373.00"/>
    <timestep time="374.00"/>
    <timestep time="375.00"/>
    <timestep time="376.00"/>
    <timestep time="377.00"/>
    <timestep time="378.00"/>
    <timestep time="379.00"/>
    <timestep time="380.00"/>
    <timestep time="381.00"/>
    <timestep time="382.00"/>
    <timestep time="383.00"/>
    <timestep time="384.00"/>
    <timestep time="385.00"/>
    <timestep time="386.00"/>
    <timestep time="387.00"/>
    <timestep time="388.00"/>
    <timestep time="389.00"/>
    <timestep time="390.00"/>
    <timestep time="391.00"/>
    <timestep time="392.00"/>
    <timestep time="393.00"/>
    <timestep time="394.00"/>
    <timestep time="395.00"/>
    <timestep time="396.00"/>
    <timestep time="397.00"/>
    <timestep time="398.00"/>
    <timestep time="399.00"/>
    <timestep time="400.00"/>
    <timestep time="401.00"/>
    <timestep time="402.00"/>
    <timestep time="403.00"/>
    <timestep time="404.00"/>
    <timestep time="405.00"/>
    <timestep time="406.00"/>
    <timestep time="407.00"/>
    <timestep time="408.00"/>
    <timestep time="409.00"/>
    <timestep time="410.00"/>
    <timestep time="411.00"/>
    <timestep time="412.00"/>
    <timestep time="413.00"/>
    <timestep time="414.00"/>
    <timestep time="415.00"/>
    <timestep time="416.00"/>
    <timestep time="417.00"/>
    <timestep time="418.00"/>
    <timestep time="419.00"/>
    <timestep time="420.00"/>
    <timestep time="421.00"/>
    <timestep time="422.00"/>
    <timestep time="423.00"/>
    <timestep time="424.00"/>
    <timestep time="425.00"/>
    <timestep time="426.00"/>
    <timestep time="427.00"/>
    <timestep time="428.00"/>
    <timestep time="429.00"/>
    <timestep time="430.00"/>
    <timestep time="431.00"/>
    <timestep time="432.00"/>
    <timestep time="433.00"/>
    <timestep time="434.00"/>
    <timestep time="435.00"/>
    <timestep time="436.00"/>
    <timestep time="437.00"/>
    <timestep time="438.00"/>
    <timestep time="439.00"/>
    <timestep time="440.00"/>
    <timestep time="441.00"/>
    <timestep time="442.00"/>
    <timestep time="443.00"/>
    <timestep time="444.00"/>
    <timestep time="445.00"/>
    <timestep time="446.00"/>
    <timestep time="447.00"/>
    <timestep time="448.00"/>
    <timestep time="449.00"/>
    <timestep time="450.00"/>
    <timestep time="451.00"/>
    <timestep time="452.00"/>
    <timestep time="453.00"/>
    <timestep time="454.00"/>
    <timestep time="455.00"/>
    <timestep time="456.00"/>
    <timestep time="457.00"/>
    <timestep time="458.00"/>
    <timestep time="459.00"/>
    <timestep time="460.00"/>
    <timestep time="461.00"/>
    <timestep time="462.00"/>
    <timestep time="463.00"/>
    <timestep time="464.00"/>
    <timestep time="465.00"/>
    <timestep time="466.00"/>
    <timestep time="467.00"/>
    <timestep time="468.00"/>
    <timestep time="469.00"/>
    <timestep time="470.00"/>
    <timestep time="471.00"/>
    <timestep time="472.00"/>
    <timestep time="473.00"/>
    <timestep time="474.00"/>
    <timestep time="475.00"/>
    <timestep time="476.00"/>
    <timestep time="477.00"/>
    <timestep time="478.00"/>
    <timestep time="479.00"/>
    <timestep time="480.00"/>
    <timestep time="481.00"/>
    <timestep time="482.00"/>
    <timestep time="483.00"/>